
                                 *****************
                                 * O   R   C   A *
                                 *****************

                                            #,                                       
                                            ###                                      
                                            ####                                     
                                            #####                                    
                                            ######                                   
                                           ########,                                 
                                     ,,################,,,,,                         
                               ,,#################################,,                 
                          ,,##########################################,,             
                       ,#########################################, ''#####,          
                    ,#############################################,,   '####,        
                  ,##################################################,,,,####,       
                ,###########''''           ''''###############################       
              ,#####''   ,,,,##########,,,,          '''####'''          '####       
            ,##' ,,,,###########################,,,                        '##       
           ' ,,###''''                  '''############,,,                           
         ,,##''                                '''############,,,,        ,,,,,,###''
      ,#''                                            '''#######################'''  
     '                                                          ''''####''''         
             ,#######,   #######,   ,#######,      ##                                
            ,#'     '#,  ##    ##  ,#'     '#,    #''#        ,####,    ,#,          
            ##       ##  ##   ,#'  ##            #'  '#       #'       ,# #          
            ##       ##  #######   ##           ,######,      #####,      #          
            '#,     ,#'  ##    ##  '#,     ,#' ,#      #,     #,   #      #          
             '#######'   ##     ##  '#######'  #'      '#     '####' #    #          



                #########################################################
                #                        -***-                          #
                #          Department of theory and spectroscopy        #
                #                                                       #
                #                      Frank Neese                      #
                #                                                       #
                #     Directorship, Architecture, Infrastructure        #
                #                    SHARK, DRIVERS                     #
                #        Core code/Algorithms in most modules           #
                #                                                       #
                #        Max Planck Institute fuer Kohlenforschung      #
                #                Kaiser Wilhelm Platz 1                 #
                #                 D-45470 Muelheim/Ruhr                 #
                #                      Germany                          #
                #                                                       #
                #                  All rights reserved                  #
                #                        -***-                          #
                #########################################################


                         Program Version 6.1.1  -  RELEASE   -
                                (GIT: $487d211c$)
                          ($2025-11-21 10:33:24 +0100$)
                                                                         
                                  - NO-DMRG VERSION -                    
                                                                         


 With contributions from (in alphabetic order):
[Max-Planck-Institut fuer Kohlenforschung]                               
  Daniel Aravena         : Magnetic Suceptibility                        
  Michael Atanasov       : Ab Initio Ligand Field Theory (pilot matlab implementation)
  Alexander A. Auer      : GIAO ZORA, VPT2 properties, NMR spectrum      
  Ute Becker             : All parallelization in ORCA, NUMFREQ, NUMCALC 
  Giovanni Bistoni       : ED, misc. LED, open-shell LED, HFLD           
  Dmytro Bykov           : pre 5.0 version of the SCF Hessian            
  Marcos Casanova-Páez   : Triplet and SCS-CIS(D). UHF-(DLPNO)-IP/EA/STEOM-CCSD. UHF-CVS-IP/STEOM-CCSD   
  Vijay G. Chilkuri      : MRCI spin determinant printing, contributions to CSF-ICE 
  Pauline Colinet        : FMM embedding                                 
  Dipayan Datta          : RHF DLPNO-CCSD density                        
  Achintya Kumar Dutta   : EOM-CC, STEOM-CC                              
  Nicolas Foglia         : Exact transition moments, OPA infrastructure, MCD improvements    
  Dmitry Ganyushin       : Spin-Orbit,Spin-Spin,Magnetic field MRCI      
  Miquel Garcia-Rates    : C-PCM and meta-GGA Hessian, CCSD/C-PCM, Gaussian charge scheme 
  Tiago L. C. Gouveia    : GS-ROHF, GS-ROCIS                             
  Yang Guo               : DLPNO-NEVPT2, F12-NEVPT2, CIM, IAO-localization        
  Andreas Hansen         : Spin unrestricted coupled pair/coupled cluster methods 
  Ingolf Harden          : AUTO-CI MPn and infrastructure                
  Benjamin Helmich-Paris : MC-RPA, TRAH-(SCF,CASSCF), AVAS, COSX integrals, SCF dyn. polar., MC-PDFT, srDFT 
  Lee Huntington         : MR-EOM, pCC                                   
  Robert Izsak           : Overlap fitted RIJCOSX, COSX-SCS-MP3, EOM     
  Riya Kayal             : Wick's Theorem for AUTO-CI, AUTO-CI UHF-CCSDT 
  Emily Kempfer          : AUTO-CI RHF CISDT and CCSDT, approximate NEVPT4
  Christian Kollmar      : KDIIS, OOCD, Brueckner-CCSD(T), CCSD density, CASPT2, CASPT2-K, improved NEVPT2 
  Axel Koslowski         : Symmetry handling                             
  Simone Kossmann        : meta-GGA functionals, TD-DFT gradient, OOMP2, (MP2 Hessian; deprecated post 5.0) 
  Lucas Lang             : DCDCAS, Hyperfine gauge corrections, ICE-SOC+SSC
  Marvin Lechner         : AUTO-CI (C++ implementation), FIC-MRCC        
  Spencer Leger          : CASSCF response                               
  Dagmar Lenk            : GEPOL surface, SMD, ORCA-2-JSON               
  Dimitrios Liakos       : Extrapolation schemes; Compound Job, Property file
  Dimitrios Manganas     : Further ROCIS development; embedding schemes. LFT, Crystal Embedding 
  Dimitrios Pantazis     : SARC Basis sets                               
  Anastasios Papadopoulos: AUTO-CI, single reference methods and gradients 
  Taras Petrenko         : pre 6.0 DFT Hessian and TD-DFT gradient,  ECA, NRVS 
  Petra Pikulova         : Analytic Raman intensities                    
  Peter Pinski           : DLPNO-MP2, DLPNO-MP2 Gradient                 
  Shashank Vittal Rao    : ES-AILFT, MagRelax                            
  Christoph Reimann      : Effective Core Potentials                     
  Marius Retegan         : Local ZFS, SOC                                
  Christoph Riplinger    : Optimizer, TS searches, QM/MM, DLPNO-CCSD(T), (RO)-DLPNO pert. Triples 
  Michael Roemelt        : Original ROCIS implementation, recursive CI coupling coefficients
  Masaaki Saitow         : Open-shell DLPNO-CCSD energy and density      
  Barbara Sandhoefer     : DKH picture change effects                    
  Yorick L. A. Schmerwitz: GMF and freeze-and-release deltaSCF, NEB S-IDPP initial path                    
  Kantharuban Sivalingam : CASSCF convergence/infrastructure, NEVPT2, NEVPT3, NEVPT4(SD), FIC-MRCI and CEPA variants
  Bernardo de Souza      : ESD, SOC TD-DFT                               
  Georgi L. Stoychev     : AutoAux, RI-MP2 NMR, DLPNO-MP2 response, X2C  
  Van Anh Tran           : RI-MP2 g-tensors                              
  Willem Van den Heuvel  : Paramagnetic NMR                              
  Zikuan Wang            : NOTCH, Electric field optimization            
  Frank Wennmohs         : Technical directorship and infrastructure     
  Hang Xu                : AUTO-CI-Response properties                   
                                                                         
[FACCTs GmbH]                                                            
  Markus Bursch, Nicolas Foglia, Miquel Garcia-Rates, Ingolf Harden, Hagen Neugebauer, Anastasios Papadopoulos, 
  Christoph Riplinger, Bernardo de Souza, Georgi L. Stoychev                                                    
                                                                 
  APM, various basis sets, CI-OPT, improved COSX, DLPNO-Multilevel,           
  DOCKER, DRACO, updates on ESD, Fragmentator, GOAT, IRC, LR-CPCM, L-BFGS, MBIS, meta-GGA TD-DFT gradient, ML-optimized integration grids, 
  MM, NACMEs, nearIR, NEB, NEB-TS, NL-DFT gradient (VV10), 2- and 3-layer-ONIOM, interface openCOSMO-RS, QMMM,   
  Crystal-QMMM, RESP, rigid body optimization, SF, symmetry and pop. for TD-DFT, various functionals, SOLVATOR                                   
                                                                         
[Other institutions]                                                     
  V. Asgeirsson          : NEB                                           
  Christoph Bannwarth    : sTDA-DFT, sTD-DFT, PBEh-3c, B97-3c, D3        
  Giovanni Bistoni       : ETS/NOCV, ADLD/ADEX, COVALED                  
  Martin Brehm           : Molecular dynamics                            
  Ronald Cardenas        : ETS/NOCV                                      
  Martina Colucci        : COVALED                                       
  Sebastian Ehlert       : rSCAN, r2SCAN, r2SCAN-3c, D4, dhf basis sets  
  Marvin Friede          : D4 for Fr, Ra, Ac-Lr                          
  Lars Goerigk           : TD-DFT with DH, B97 family of functionals     
  Stefan Grimme          : VdW corrections, initial TS optimization, DFT functionals, gCP, sTDA/sTD-DF 
  Waldemar Hujo          : DFT-NL                                        
  H. Jonsson             : NEB                                           
  Holger Kruse           : gCP                                           
  Marcel Mueller         : wB97X-3c, vDZP basis set                      
  Hagen Neugebauer       : wr2SCAN, Native XTB                           
  Gianluca Regni         : ADLD/ADEX                                     
  Tobias Risthaus        : pre 6.0 range-separated hybrid DFT and stability analysis
  Lukas Wittmann         : regularized MP2, r2SCAN double-hybrids, wr2SCAN        
                                                                         
We gratefully acknowledge several colleagues who have allowed us to      
interface, adapt or use parts of their codes:                            
  Ed Valeev, F. Pavosevic, A. Kumar             : LibInt (2-el integral package), F12 methods 
  Garnet Chan, S. Sharma, J. Yang, R. Olivares  : DMRG                   
  Ulf Ekstrom                                   : XCFun DFT Library      
  Mihaly Kallay                                 : mrcc  (arbitrary order and MRCC methods)
  Frank Weinhold                                : gennbo (NPA and NBO analysis)           
  Simon Mueller                                 : openCOSMO-RS                            
  Christopher J. Cramer and Donald G. Truhlar   : smd solvation model                     
  S Lehtola, MJT Oliveira, MAL Marques          : LibXC Library                           
  Liviu Ungur et al                             : ANISO software                          


 Your calculation uses the libint2 library for the computation of 2-el integrals
 For citations please refer to: http://libint.valeyev.net

 Your ORCA version has been built with support for libXC version: 7.0.0
 For citations please refer to: https://libxc.gitlab.io

 This ORCA versions uses:
   CBLAS   interface :  Fast vector & matrix operations
   LAPACKE interface :  Fast linear algebra routines
   SCALAPACK package :  Parallel linear algebra routines
   Shared memory     :  Shared parallel matrices
   BLAS/LAPACK       :  OpenBLAS 0.3.29  USE64BITINT DYNAMIC_ARCH NO_AFFINITY Sandybridge SINGLE_THREADED
        Core in use  :  Sandybridge
   Copyright (c) 2011-2014, The OpenBLAS Project


  ***********************************
  * Starting time: Wed Apr 15 03:42:28 2026
  * Host name:     login3
  * Process ID:    5369
  * Working dir.:  /u/project/houk/avrubio/Scripts/orca
  ***********************************

Functionals available via LibXC:
  No.:     ID / Keyword                    - Name
    0:     18 / lda_c_1d_csc               - Casula, Sorella & Senatore
    1:     26 / lda_c_1d_loos              - P-F Loos correlation LDA
    2:     15 / lda_c_2d_amgb              - AMGB (for 2D systems)
    3:     16 / lda_c_2d_prm               - PRM (for 2D systems)
    4:    552 / lda_c_br78                 - Brual & Rothstein 78
    5:    287 / lda_c_chachiyo             - Chachiyo simple 2 parameter correlation
    6:    307 / lda_c_chachiyo_mod         - Chachiyo simple 2 parameter correlation with modified spin scaling
    7:    328 / lda_c_epc17                - epc17(-1): electron-proton correlation 2017
    8:    329 / lda_c_epc17_2              - epc17-2: electron-proton correlation 2017 for proton affinities
    9:    330 / lda_c_epc18_1              - epc18-1: electron-proton correlation 2018
   10:    331 / lda_c_epc18_2              - epc18-2: electron-proton correlation 2018 for proton affinities
   11:    578 / lda_c_gk72                 - Gordon and Kim 1972
   12:      5 / lda_c_gl                   - Gunnarson & Lundqvist
   13:     24 / lda_c_gombas               - Gombas
   14:      4 / lda_c_hl                   - Hedin & Lundqvist
   15:    579 / lda_c_karasiev             - Karasiev reparameterization of Chachiyo
   16:    308 / lda_c_karasiev_mod         - Karasiev reparameterization of Chachiyo
   17:    289 / lda_c_lp96                 - Liu-Parr correlation
   18:    551 / lda_c_mcweeny              - McWeeny 76
   19:     22 / lda_c_ml1                  - Modified LSD (version 1) of Proynov and Salahub
   20:     23 / lda_c_ml2                  - Modified LSD (version 2) of Proynov and Salahub
   21:     14 / lda_c_ob_pw                - Ortiz & Ballone (PW parametrization)
   22:     11 / lda_c_ob_pz                - Ortiz & Ballone (PZ parametrization)
   23:    574 / lda_c_ow                   - Optimized Wigner
   24:    573 / lda_c_ow_lyp               - Wigner with corresponding LYP parameters
   25:    554 / lda_c_pk09                 - Proynov and Kong 2009
   26:    590 / lda_c_pmgb06               - Long-range LDA correlation functional
   27:     12 / lda_c_pw                   - Perdew & Wang
   28:    654 / lda_c_pw_erf               - Short ranged correlation LDA (erfc)
   29:     13 / lda_c_pw_mod               - Perdew & Wang (modified)
   30:     25 / lda_c_pw_rpa               - Perdew & Wang (fit to the RPA energy)
   31:      9 / lda_c_pz                   - Perdew & Zunger
   32:     10 / lda_c_pz_mod               - Perdew & Zunger (Modified)
   33:     27 / lda_c_rc04                 - Ragot-Cortona
   34:      3 / lda_c_rpa                  - Random Phase Approximation (RPA)
   35:    684 / lda_c_rpw92                - Ruggeri, Rios, and Alavi restricted fit
   36:    683 / lda_c_upw92                - Ruggeri, Rios, and Alavi unrestricted fit
   37:     17 / lda_c_vbh                  - von Barth & Hedin
   38:      7 / lda_c_vwn                  - Vosko, Wilk & Nusair (VWN5)
   39:     28 / lda_c_vwn_1                - Vosko, Wilk & Nusair (VWN1)
   40:     29 / lda_c_vwn_2                - Vosko, Wilk & Nusair (VWN2)
   41:     30 / lda_c_vwn_3                - Vosko, Wilk & Nusair (VWN3)
   42:     31 / lda_c_vwn_4                - Vosko, Wilk & Nusair (VWN4)
   43:      8 / lda_c_vwn_rpa              - Vosko, Wilk & Nusair (VWN5_RPA)
   44:    317 / lda_c_w20                  - Xie, Wu, and Zhao interpolation ansatz without fitting parameters
   45:      2 / lda_c_wigner               - Wigner
   46:      6 / lda_c_xalpha               - Slater's Xalpha
   47:   100001 / lda_k_gds08_worker         - Combined analytical theory with Monte Carlo sampling
   48:     51 / lda_k_lp                   - Lee and Parr Gaussian ansatz for the kinetic energy
   49:    580 / lda_k_lp96                 - Liu-Parr kinetic
   50:     50 / lda_k_tf                   - Thomas-Fermi kinetic energy
   51:    550 / lda_k_zlp                  - Wigner including kinetic energy contribution
   52:      1 / lda_x                      - Slater exchange
   53:    600 / lda_x_1d_exponential       - Exchange in 1D for an exponentially screened interaction
   54:     21 / lda_x_1d_soft              - Exchange in 1D for an soft-Coulomb interaction
   55:     19 / lda_x_2d                   - Slater exchange
   56:    546 / lda_x_erf                  - Short-range LDA exchange with error function kernel (erfc)
   57:    549 / lda_x_rae                  - Rae self-energy corrected exchange
   58:    532 / lda_x_rel                  - Slater exchange with relativistic corrections
   59:    692 / lda_x_sloc                 - simple local model for Slater potential
   60:    641 / lda_x_yukawa               - Short-range LDA exchange with Yukawa attenuation
   61:    536 / lda_xc_1d_ehwlrg_1         - LDA constructed from slab-like systems of 1 electron
   62:    537 / lda_xc_1d_ehwlrg_2         - LDA constructed from slab-like systems of 2 electrons
   63:    538 / lda_xc_1d_ehwlrg_3         - LDA constructed from slab-like systems of 3 electrons
   64:    318 / lda_xc_corrksdt            - Corrected KSDT by Karasiev, Dufty and Trickey
   65:    577 / lda_xc_gdsmfb              - Groth, Dornheim, Sjostrom, Malone, Foulkes, Bonitz
   66:    259 / lda_xc_ksdt                - Karasiev, Sjostrom, Dufty & Trickey
   67:    547 / lda_xc_lp_a                - Lee-Parr reparametrization A
   68:    548 / lda_xc_lp_b                - Lee-Parr reparametrization B
   69:     20 / lda_xc_teter93             - Teter 93
   70:    599 / lda_xc_tih                 - Neural network LDA from Tozer et al
   71:     43 / lda_xc_zlp                 - Zhao, Levy & Parr, Eq. (20)
   72:     39 / gga_c_acgga                - acGGA, asymptotically corrected GGA correlation
   73:    176 / gga_c_acggap               - acGGA+, asymptotically corrected GGA correlation+
   74:    135 / gga_c_am05                 - Armiento & Mattsson 05
   75:    186 / gga_c_apbe                 - mu fixed from the semiclassical neutral atom
   76:    280 / gga_c_bmk                  - Boese-Martin correlation for kinetics
   77:    313 / gga_c_ccdf                 - ccDF: coupled-cluster motivated density functional
   78:    309 / gga_c_chachiyo             - Chachiyo simple GGA correlation
   79:    565 / gga_c_cs1                  - A dynamical correlation functional
   80:     88 / gga_c_ft97                 - Filatov & Thiel correlation
   81:     33 / gga_c_gam                  - Minnesota GAM correlation functional
   82:    555 / gga_c_gapc                 - GapC
   83:    556 / gga_c_gaploc               - Gaploc
   84:     97 / gga_c_hcth_a               - HCTH-A
   85:    283 / gga_c_hyb_tau_hcth         - correlation part of hyb-tau-hcth
   86:    137 / gga_c_lm                   - Langreth & Mehl
   87:    131 / gga_c_lyp                  - Lee, Yang & Parr
   88:    624 / gga_c_lypr                 - Short-range LYP by Ai, Fang, and Su
   89:    712 / gga_c_mggac                - beta fitted to LC20 to be used with MGGAC
   90:     80 / gga_c_n12                  - Minnesota N12 correlation functional
   91:     79 / gga_c_n12_sx               - Minnesota N12-SX correlation functional
   92:     87 / gga_c_op_b88               - one-parameter progressive functional (B88 version)
   93:     85 / gga_c_op_g96               - one-parameter progressive functional (G96 version)
   94:     86 / gga_c_op_pbe               - one-parameter progressive functional (PBE version)
   95:    262 / gga_c_op_pw91              - one-parameter progressive functional (PW91 version)
   96:     84 / gga_c_op_xalpha            - one-parameter progressive functional (Xalpha version)
   97:    200 / gga_c_optc                 - Optimized correlation functional of Cohen and Handy
   98:    132 / gga_c_p86                  - Perdew 86
   99:    217 / gga_c_p86_ft               - Perdew 86 with more accurate value for ftilde
  100:    252 / gga_c_p86vwn               - Perdew 86 based on VWN5 correlation
  101:    253 / gga_c_p86vwn_ft            - Perdew 86 based on VWN5 correlation, with more accurate value for ftilde
  102:    130 / gga_c_pbe                  - Perdew, Burke & Ernzerhof
  103:    657 / gga_c_pbe_erf_gws          - Short ranged PBE correlation (erfc)
  104:    322 / gga_c_pbe_gaussian         - Perdew, Burke & Ernzerhof with parameters from Gaussian
  105:    138 / gga_c_pbe_jrgx             - Reparametrized PBE by Pedroza, Silva & Capelle
  106:    272 / gga_c_pbe_mol              - Reparametrized PBE by del Campo, Gazquez, Trickey & Vela
  107:    133 / gga_c_pbe_sol              - Perdew, Burke & Ernzerhof SOL
  108:    216 / gga_c_pbe_vwn              - Perdew, Burke & Ernzerhof based on VWN correlation
  109:    258 / gga_c_pbefe                - PBE for formation energies
  110:     62 / gga_c_pbeint               - PBE for hybrid interfaces
  111:    246 / gga_c_pbeloc               - Semilocal dynamical correlation
  112:    134 / gga_c_pw91                 - Perdew & Wang 91
  113:     47 / gga_c_q2d                  - Chiodo et al
  114:     83 / gga_c_regtpss              - regularized TPSS correlation
  115:     99 / gga_c_revtca               - Tognetti, Cortona, Adamo (revised)
  116:    143 / gga_c_rge2                 - Regularized PBE
  117:    553 / gga_c_scan_e0              - GGA component of SCAN
  118:    534 / gga_c_sg4                  - Semiclassical GGA at fourth order
  119:    152 / gga_c_sogga11              - Second-order generalized gradient approximation 2011
  120:    159 / gga_c_sogga11_x            - To be used with HYB_GGA_X_SOGGA11_X
  121:     89 / gga_c_spbe                 - PBE correlation to be used with the SSB exchange
  122:    281 / gga_c_tau_hcth             - correlation part of tau-hcth
  123:    100 / gga_c_tca                  - Tognetti, Cortona, Adamo
  124:    559 / gga_c_tm_lyp               - Takkar and McCarthy reparametrization, also known as reLYP
  125:    560 / gga_c_tm_pbe               - Thakkar and McCarthy reparametrization
  126:    561 / gga_c_w94                  - Wilson 94 (Eq. 25)
  127:    148 / gga_c_wi                   - Wilson & Ivanov
  128:    153 / gga_c_wi0                  - Wilson & Ivanov initial version
  129:    147 / gga_c_wl                   - Wilson & Levy
  130:    136 / gga_c_xpbe                 - Extended PBE by Xu & Goddard III
  131:     61 / gga_c_zpbeint              - spin-dependent gradient correction to PBEint
  132:     63 / gga_c_zpbesol              - spin-dependent gradient correction to PBEsol
  133:    557 / gga_c_zvpbeint             - another spin-dependent correction to PBEint
  134:    606 / gga_c_zvpbeloc             - PBEloc variation with enhanced compatibility with exact exchange
  135:    558 / gga_c_zvpbesol             - another spin-dependent correction to PBEsol
  136:    506 / gga_k_absp1                - gamma-TFvW form by Acharya et al [$g = 1 - 1.412/N^{1/3}$]
  137:    507 / gga_k_absp2                - gamma-TFvW form by Acharya et al [$g = 1 - 1.332/N^{1/3}$]
  138:    277 / gga_k_absp3                - gamma-TFvW form by Acharya et al [$g = 1 - 1.513/N^{0.35}]$
  139:    278 / gga_k_absp4                - gamma-TFvW form by Acharya et al [$g = l = 1/(1 + 1.332/N^{1/3})$]
  140:    185 / gga_k_apbe                 - mu fixed from the semiclassical neutral atom
  141:     54 / gga_k_apbeint              - interpolated version of APBE
  142:    504 / gga_k_baltin               - TF-lambda-vW form by Baltin (l = 5/9)
  143:    516 / gga_k_dk                   - DePristo and Kress
  144:    520 / gga_k_ernzerhof            - Ernzerhof
  145:    597 / gga_k_exp4                 - Intermediate form between PBE3 and PBE4
  146:    514 / gga_k_fr_b88               - Fuentealba & Reyes (B88 version)
  147:    515 / gga_k_fr_pw86              - Fuentealba & Reyes (PW86 version)
  148:    591 / gga_k_gds08                - Combined analytical theory with Monte Carlo sampling
  149:    501 / gga_k_ge2                  - Second-order gradient expansion of the kinetic energy density
  150:    592 / gga_k_ghds10               - As GDS08 but for an electron gas with spin
  151:    593 / gga_k_ghds10r              - Reparametrized GHDS10
  152:    502 / gga_k_golden               - TF-lambda-vW form by Golden (l = 13/45)
  153:    510 / gga_k_gp85                 - gamma-TFvW form by Ghosh and Parr
  154:    508 / gga_k_gr                   - gamma-TFvW form by Gazquez and Robles
  155:    521 / gga_k_lc94                 - Lembarki & Chermette
  156:    620 / gga_k_lgap                 - LGAP by Constantin et al
  157:    633 / gga_k_lgap_ge              - LGAP-GE by Constantin et al
  158:    505 / gga_k_lieb                 - TF-lambda-vW form by Lieb (l = 0.185909191)
  159:    613 / gga_k_lkt                  - Luo-Karasiev-Trickey GGA kinetic
  160:    522 / gga_k_llp                  - Lee, Lee & Parr
  161:    509 / gga_k_ludena               - gamma-TFvW form by Ludena
  162:     57 / gga_k_meyer                - Meyer,  Wang, and Young
  163:    512 / gga_k_ol1                  - Ou-Yang and Levy v.1
  164:    513 / gga_k_ol2                  - Ou-Yang and Levy v.2
  165:    616 / gga_k_pbe2                 - Three parameter PBE-like expansion
  166:    595 / gga_k_pbe3                 - Three parameter PBE-like expansion
  167:    596 / gga_k_pbe4                 - Four parameter PBE-like expansion
  168:    511 / gga_k_pearson              - Pearson 1992
  169:    517 / gga_k_perdew               - Perdew
  170:    219 / gga_k_pg1                  - PG1 (Pauli-Gaussian) functional by Constantin, Fabiano, and Della Sala
  171:    218 / gga_k_rational_p           - RATIONAL$^{p}$ by Lehtomaki and Lopez-Acevedo (by default $p=3/2$, $C_{2}=0.7687$)
  172:     55 / gga_k_revapbe              - revised APBE
  173:     53 / gga_k_revapbeint           - interpolated version of revAPBE
  174:     52 / gga_k_tfvw                 - Thomas-Fermi plus von Weiszaecker correction
  175:    635 / gga_k_tfvw_opt             - empirically optimized gamma-TFvW form
  176:    523 / gga_k_thakkar              - Thakkar 1992
  177:    594 / gga_k_tkvln                - Trickey, Karasiev, and Vela
  178:    187 / gga_k_tw1                  - Tran and Wesolowski set 1 (Table II)
  179:    188 / gga_k_tw2                  - Tran and Wesolowski set 2 (Table II)
  180:    189 / gga_k_tw3                  - Tran and Wesolowski set 3 (Table II)
  181:    190 / gga_k_tw4                  - Tran and Wesolowski set 4 (Table II)
  182:    519 / gga_k_vjks                 - Vitos, Johansson, Kollar, and Skriver
  183:    518 / gga_k_vsk                  - Vitos, Skriver, and Kollar
  184:    619 / gga_k_vt84f                - VT84F by Karasiev et al
  185:    500 / gga_k_vw                   - von Weiszaecker correction to Thomas-Fermi
  186:    503 / gga_k_yt65                 - TF-lambda-vW form by Yonei and Tomishima (l = 1/5)
  187:    128 / gga_x_2d_b86               - Becke 86 in 2D
  188:    124 / gga_x_2d_b86_mgc           - Becke 86 with modified gradient correction for 2D
  189:    127 / gga_x_2d_b88               - Becke 88 in 2D
  190:    129 / gga_x_2d_pbe               - Perdew, Burke & Ernzerhof in 2D
  191:    192 / gga_x_airy                 - Constantin et al based on the Airy gas
  192:     56 / gga_x_ak13                 - Armiento & Kuemmel 2013
  193:    120 / gga_x_am05                 - Armiento & Mattsson 05
  194:    184 / gga_x_apbe                 - mu fixed from the semiclassical neutral atom
  195:    103 / gga_x_b86                  - Becke 86
  196:    105 / gga_x_b86_mgc              - Becke 86 with modified gradient correction
  197:     41 / gga_x_b86_r                - Revised Becke 86 with modified gradient correction
  198:    106 / gga_x_b88                  - Becke 88
  199:    179 / gga_x_b88_6311g            - Becke 88 reoptimized with the 6-311G** basis set
  200:    570 / gga_x_b88m                 - Becke 88 reoptimized to be used with tau1
  201:    125 / gga_x_bayesian             - Bayesian best fit for the enhancement factor
  202:     38 / gga_x_bcgp                 - Burke, Cancio, Gould, and Pittalis
  203:    285 / gga_x_beefvdw              - BEEF-vdW exchange
  204:    338 / gga_x_bkl1                 - Type-I band gap functional by Bhattacharjee, Koshi and Lee
  205:    339 / gga_x_bkl2                 - Type-II band gap functional by Bhattacharjee, Koshi and Lee
  206:     98 / gga_x_bpccac               - BPCCAC (GRAC for the energy)
  207:    158 / gga_x_c09x                 - C09x to be used with the VdW of Rutgers-Chalmers
  208:    270 / gga_x_cap                  - Correct Asymptotic Potential
  209:    298 / gga_x_chachiyo             - Chachiyo exchange
  210:    111 / gga_x_dk87_r1              - dePristo & Kress 87 version R1
  211:    112 / gga_x_dk87_r2              - dePristo & Kress 87 version R2
  212:    271 / gga_x_eb88                 - Non-empirical (excogitated) B88 functional of Becke and Elliott
  213:    215 / gga_x_ecmv92               - Engel, Chevary, Macdonald and Vosko
  214:     35 / gga_x_ev93                 - Engel and Vosko
  215:    604 / gga_x_fd_lb94              - Functional derivative recovered from the stray LB94 potential
  216:    605 / gga_x_fd_revlb94           - Revised FD_LB94
  217:    114 / gga_x_ft97_a               - Filatov & Thiel 97 (version A)
  218:    115 / gga_x_ft97_b               - Filatov & Thiel 97 (version B)
  219:    107 / gga_x_g96                  - Gill 96
  220:     32 / gga_x_gam                  - Minnesota GAM exhange functional
  221:    535 / gga_x_gg99                 - Gilbert and Gill 1999
  222:     34 / gga_x_hcth_a               - HCTH-A
  223:    527 / gga_x_hjs_b88              - HJS screened exchange B88 version
  224:     46 / gga_x_hjs_b88_v2           - HJS screened exchange B88 corrected version
  225:    528 / gga_x_hjs_b97x             - HJS screened exchange B97x version
  226:    525 / gga_x_hjs_pbe              - HJS screened exchange PBE version
  227:    526 / gga_x_hjs_pbe_sol          - HJS screened exchange PBE_SOL version
  228:    191 / gga_x_htbs                 - Haas, Tran, Blaha, and Schwarz
  229:    529 / gga_x_ityh                 - Short-range recipe for B88 functional - erf
  230:    622 / gga_x_ityh_optx            - Short-range recipe for OPTX functional
  231:    623 / gga_x_ityh_pbe             - Short-range recipe for PBE functional
  232:    544 / gga_x_kgg99                - Gilbert and Gill 1999 (mixed)
  233:    145 / gga_x_kt1                  - Exchange part of Keal and Tozer version 1
  234:    193 / gga_x_lag                  - Local Airy Gas
  235:     44 / gga_x_lambda_ch_n          - lambda_CH(N) version of PBE
  236:     45 / gga_x_lambda_lo_n          - lambda_LO(N) version of PBE
  237:     40 / gga_x_lambda_oc2_n         - lambda_OC2(N) version of PBE
  238:    160 / gga_x_lb                   - van Leeuwen & Baerends
  239:    182 / gga_x_lbm                  - van Leeuwen & Baerends modified
  240:    113 / gga_x_lg93                 - Lacks & Gordon 93
  241:    168 / gga_x_lspbe                - lsPBE, a PW91-like modification of PBE exchange
  242:    169 / gga_x_lsrpbe               - lsRPBE, a PW91-like modification of RPBE
  243:     58 / gga_x_lv_rpw86             - Berland and Hyldgaard
  244:    149 / gga_x_mb88                 - Modified Becke 88 for proton transfer
  245:    122 / gga_x_mpbe                 - Adamo & Barone modification to PBE
  246:    119 / gga_x_mpw91                - mPW91 of Adamo & Barone
  247:     82 / gga_x_n12                  - Minnesota N12 exchange functional
  248:    180 / gga_x_ncap                 - Nearly correct asymptotic potential
  249:    324 / gga_x_ncapr                - Nearly correct asymptotic potential revised
  250:    183 / gga_x_ol2                  - Exchange form based on Ou-Yang and Levy v.2
  251:    171 / gga_x_optb86b_vdw          - Becke 86 reoptimized for use with vdW functional of Dion et al
  252:    139 / gga_x_optb88_vdw           - opt-Becke 88 for vdW
  253:    141 / gga_x_optpbe_vdw           - Reparametrized PBE for vdW
  254:    110 / gga_x_optx                 - Handy & Cohen OPTX 01
  255:    101 / gga_x_pbe                  - Perdew, Burke & Ernzerhof
  256:    655 / gga_x_pbe_erf_gws          - Short ranged PBE exchange (erfc)
  257:    321 / gga_x_pbe_gaussian         - Perdew, Burke & Ernzerhof with parameter values used in Gaussian
  258:    126 / gga_x_pbe_jsjr             - Reparametrized PBE by Pedroza, Silva & Capelle
  259:    320 / gga_x_pbe_mod              - Perdew, Burke & Ernzerhof with less precise value for beta
  260:     49 / gga_x_pbe_mol              - Reparametrized PBE by del Campo, Gazquez, Trickey & Vela
  261:    102 / gga_x_pbe_r                - Revised PBE from Zhang & Yang
  262:    116 / gga_x_pbe_sol              - Perdew, Burke & Ernzerhof SOL
  263:     59 / gga_x_pbe_tca              - PBE revised by Tognetti et al
  264:    121 / gga_x_pbea                 - Madsen 07
  265:    265 / gga_x_pbefe                - PBE for formation energies
  266:     60 / gga_x_pbeint               - PBE for hybrid interfaces
  267:    140 / gga_x_pbek1_vdw            - Reparametrized PBE for vdW
  268:    539 / gga_x_pbepow               - PBE power
  269:    291 / gga_x_pbetrans             - Gradient-regulated connection-based correction for the PBE exchange
  270:    108 / gga_x_pw86                 - Perdew & Wang 86
  271:    109 / gga_x_pw91                 - Perdew & Wang 91
  272:    316 / gga_x_pw91_mod             - PW91, alternate version with more digits
  273:    734 / gga_x_q1d                  - Functional for quasi-1D systems
  274:     48 / gga_x_q2d                  - Chiodo et al
  275:    312 / gga_x_revssb_d             - Revised Swart, Sola and Bickelhaupt dispersion
  276:    142 / gga_x_rge2                 - Regularized PBE
  277:    117 / gga_x_rpbe                 - Hammer, Hansen, and Norskov
  278:    144 / gga_x_rpw86                - Refitted Perdew & Wang 86
  279:    495 / gga_x_s12g                 - Swart 2012 GGA exchange
  280:    530 / gga_x_sfat                 - Short-range recipe for B88 functional - Yukawa
  281:    601 / gga_x_sfat_pbe             - Short-range recipe for PBE functional - Yukawa
  282:    533 / gga_x_sg4                  - Semiclassical GGA at fourth order
  283:    150 / gga_x_sogga                - Second-order generalized gradient approximation
  284:    151 / gga_x_sogga11              - Second-order generalized gradient approximation 2011
  285:     91 / gga_x_ssb                  - Swart, Sola and Bickelhaupt
  286:     92 / gga_x_ssb_d                - Swart, Sola and Bickelhaupt dispersion
  287:     90 / gga_x_ssb_sw               - Swart, Sola and Bickelhaupt correction to PBE
  288:     68 / gga_x_vmt84_ge             - VMT{8,4} with constraint satisfaction with mu = mu_GE
  289:     69 / gga_x_vmt84_pbe            - VMT{8,4} with constraint satisfaction with mu = mu_PBE
  290:     70 / gga_x_vmt_ge               - Vela, Medel, and Trickey with mu = mu_GE
  291:     71 / gga_x_vmt_pbe              - Vela, Medel, and Trickey with mu = mu_PBE
  292:    118 / gga_x_wc                   - Wu & Cohen
  293:    524 / gga_x_wpbeh                - short-range part of the PBE (default w=0 gives PBEh)
  294:    123 / gga_x_xpbe                 - Extended PBE by Xu & Goddard III
  295:    327 / gga_xc_b97_3c              - Becke 97-3c by Grimme et. al.
  296:    170 / gga_xc_b97_d               - Becke 97-D
  297:     96 / gga_xc_b97_gga1            - Becke 97 GGA-1
  298:    286 / gga_xc_beefvdw             - BEEF-vdW exchange-correlation
  299:    165 / gga_xc_edf1                - EDF1
  300:    162 / gga_xc_hcth_120            - HCTH/120
  301:    163 / gga_xc_hcth_147            - HCTH/147
  302:    164 / gga_xc_hcth_407            - HCTH/407
  303:     93 / gga_xc_hcth_407p           - HCTH/407+
  304:    161 / gga_xc_hcth_93             - HCTH/93
  305:     95 / gga_xc_hcth_p14            - HCTH p=1/4
  306:     94 / gga_xc_hcth_p76            - HCTH p=7/6
  307:    545 / gga_xc_hle16               - high local exchange 2016
  308:    167 / gga_xc_kt1                 - Keal and Tozer, version 1
  309:    146 / gga_xc_kt2                 - Keal and Tozer, version 2
  310:    587 / gga_xc_kt3                 - Keal and Tozer, version 3
  311:    194 / gga_xc_mohlyp              - Functional for organometallic chemistry
  312:    195 / gga_xc_mohlyp2             - Functional for barrier heights
  313:    174 / gga_xc_mpwlyp1w            - mPWLYP1w
  314:    181 / gga_xc_ncap                - NCAP exchange + P86 correlation
  315:     67 / gga_xc_oblyp_d             - oBLYP-D functional of Goerigk and Grimme
  316:     65 / gga_xc_opbe_d              - oPBE-D functional of Goerigk and Grimme
  317:     66 / gga_xc_opwlyp_d            - oPWLYP-D functional of Goerigk and Grimme
  318:    173 / gga_xc_pbe1w               - PBE1W
  319:    175 / gga_xc_pbelyp1w            - PBELYP1W
  320:    154 / gga_xc_th1                 - Tozer and Handy v. 1
  321:    155 / gga_xc_th2                 - Tozer and Handy v. 2
  322:    156 / gga_xc_th3                 - Tozer and Handy v. 3
  323:    157 / gga_xc_th4                 - Tozer and Handy v. 4
  324:    197 / gga_xc_th_fc               - Tozer and Handy v. FC
  325:    198 / gga_xc_th_fcfo             - Tozer and Handy v. FCFO
  326:    199 / gga_xc_th_fco              - Tozer and Handy v. FCO
  327:    196 / gga_xc_th_fl               - Tozer and Handy v. FL
  328:    255 / gga_xc_vv10                - Vydrov and Van Voorhis
  329:    166 / gga_xc_xlyp                - XLYP
  330:    571 / mgga_c_b88                 - Meta-GGA correlation by Becke
  331:    397 / mgga_c_b94                 - Becke 1994 meta-GGA correlation
  332:    240 / mgga_c_bc95                - Becke correlation 95
  333:    387 / mgga_c_cc                  - Self-interaction corrected correlation functional by Schmidt et al
  334:    388 / mgga_c_ccalda              - Iso-orbital corrected LDA correlation by Lebeda et al
  335:    341 / mgga_c_cf22d               - Minnesota CF22D correlation functional
  336:     72 / mgga_c_cs                  - Colle and Salvetti
  337:     37 / mgga_c_dldf                - Dispersionless Density Functional
  338:    699 / mgga_c_hltapw              - Half-and-half meta-LDAized PW correlation by Lehtola and Marques
  339:    562 / mgga_c_kcis                - Krieger, Chen, Iafrate, and Savin
  340:    638 / mgga_c_kcisk               - Krieger, Chen, and Kurth
  341:    237 / mgga_c_m05                 - Minnesota M05 correlation functional
  342:    238 / mgga_c_m05_2x              - Minnesota M05-2X correlation functional
  343:    235 / mgga_c_m06                 - Minnesota M06 correlation functional
  344:    236 / mgga_c_m06_2x              - Minnesota M06-2X correlation functional
  345:    234 / mgga_c_m06_hf              - Minnesota M06-HF correlation functional
  346:    233 / mgga_c_m06_l               - Minnesota M06-L correlation functional
  347:    311 / mgga_c_m06_sx              - Minnesota M06-SX correlation functional
  348:     78 / mgga_c_m08_hx              - Minnesota M08 correlation functional
  349:     77 / mgga_c_m08_so              - Minnesota M08-SO correlation functional
  350:     76 / mgga_c_m11                 - Minnesota M11 correlation functional
  351:     75 / mgga_c_m11_l               - Minnesota M11-L correlation functional
  352:     74 / mgga_c_mn12_l              - Minnesota MN12-L correlation functional
  353:     73 / mgga_c_mn12_sx             - Minnesota MN12-SX correlation functional
  354:    269 / mgga_c_mn15                - Minnesota MN15 correlation functional
  355:    261 / mgga_c_mn15_l              - Minnesota MN15-L correlation functional
  356:    239 / mgga_c_pkzb                - Perdew, Kurth, Zupan, and Blaha
  357:    498 / mgga_c_r2scan              - Re-regularized SCAN correlation by Furness et al
  358:    642 / mgga_c_r2scan01            - Re-regularized SCAN correlation with larger value for eta
  359:    719 / mgga_c_r2scanl             - Deorbitalized re-regularized SCAN (r2SCAN-L) correlation
  360:    306 / mgga_c_revm06              - Revised Minnesota M06 correlation functional
  361:    294 / mgga_c_revm06_l            - Minnesota revM06-L correlation functional
  362:    172 / mgga_c_revm11              - Revised Minnesota M11 correlation functional
  363:    582 / mgga_c_revscan             - revised SCAN
  364:    585 / mgga_c_revscan_vv10        - REVSCAN + VV10 correlation
  365:    694 / mgga_c_revtm               - revised Tao and Mo 2016 exchange
  366:    241 / mgga_c_revtpss             - revised TPSS correlation
  367:    643 / mgga_c_rmggac              - Revised correlation energy for MGGAC exchange functional
  368:    649 / mgga_c_rppscan             - r++SCAN: rSCAN with uniform density limit and coordinate scaling behavior
  369:    391 / mgga_c_rregtm              - Revised regTM correlation by Jana et al
  370:    494 / mgga_c_rscan               - Regularized SCAN correlation by Bartok and Yates
  371:    267 / mgga_c_scan                - SCAN correlation of Sun, Ruzsinszky, and Perdew
  372:    292 / mgga_c_scan_rvv10          - SCAN + rVV10 correlation
  373:    584 / mgga_c_scan_vv10           - SCAN + VV10 correlation
  374:    702 / mgga_c_scanl               - Deorbitalized SCAN (SCAN-L) correlation
  375:    703 / mgga_c_scanl_rvv10         - SCAN-L + rVV10 correlation
  376:    704 / mgga_c_scanl_vv10          - SCAN-L + VV10 correlation
  377:    251 / mgga_c_tm                  - Tao and Mo 2016 correlation
  378:    231 / mgga_c_tpss                - Tao, Perdew, Staroverov & Scuseria
  379:    323 / mgga_c_tpss_gaussian       - Tao, Perdew, Staroverov & Scuseria with parameters from Gaussian
  380:    247 / mgga_c_tpssloc             - Semilocal dynamical correlation
  381:    232 / mgga_c_vsxc                - VSXC (correlation part)
  382:    629 / mgga_k_csk1                - mGGA-rev functional by Cancio, Stewart, and Kuna (a=1)
  383:    630 / mgga_k_csk4                - mGGA-rev functional by Cancio, Stewart, and Kuna (a=4)
  384:    631 / mgga_k_csk_loc1            - mGGAloc-rev functional by Cancio, Stewart, and Kuna (a=1)
  385:    632 / mgga_k_csk_loc4            - mGGAloc-rev functional by Cancio, Stewart, and Kuna (a=4)
  386:    627 / mgga_k_gea2                - Second-order gradient expansion
  387:    628 / mgga_k_gea4                - Fourth-order gradient expansion
  388:    617 / mgga_k_l04                 - L0.4 by Laricchia et al
  389:    618 / mgga_k_l06                 - L0.6 by Laricchia et al
  390:    543 / mgga_k_pc07                - Perdew and Constantin 2007
  391:    634 / mgga_k_pc07_opt            - Reoptimized PC07 by Mejia-Rodriguez and Trickey
  392:    220 / mgga_k_pgsl025             - PGSL025 (Pauli-Gaussian) functional by Constantin, Fabiano, and Della Sala
  393:    621 / mgga_k_rda                 - Reduced derivative approximation by Karasiev et al
  394:    609 / mgga_x_2d_js17             - JS17 meta-GGA for 2D
  395:    210 / mgga_x_2d_prhg07           - Pittalis-Rasanen-Helbig-Gross 2007
  396:    211 / mgga_x_2d_prhg07_prp10     - PRHG07 with Pittalis-Rasanen-Proetto 2010 correction
  397:    284 / mgga_x_b00                 - Becke 2000
  398:    207 / mgga_x_bj06                - Becke & Johnson 06
  399:    244 / mgga_x_bloc                - functional with balanced localization
  400:    206 / mgga_x_br89                - Becke-Roussel 89, gamma = 0.8
  401:    214 / mgga_x_br89_1              - Becke-Roussel 89, gamma = 1.0
  402:    586 / mgga_x_br89_explicit       - Becke-Roussel 89 with an explicit inversion of x(y), gamma = 0.8
  403:    602 / mgga_x_br89_explicit_1     - Becke-Roussel 89 with an explicit inversion of x(y), gamma = 1.0
  404:    686 / mgga_x_edmgga              - Tao 2001
  405:    326 / mgga_x_eel                 - Exact exchange-like exchange of Aschebrock et al
  406:    319 / mgga_x_ft98                - Filatov and Thiel 1998 meta-GGA exchange
  407:    689 / mgga_x_gdme_0              - Generalized density-matrix with a=0
  408:    690 / mgga_x_gdme_kos            - Generalized density-matrix with a=0.00638
  409:    687 / mgga_x_gdme_nv             - Generalized density-matrix with a=1/2
  410:    691 / mgga_x_gdme_vt             - Varied-terms (VT) mGGA of Koehl, Odom, and Scuseria
  411:    204 / mgga_x_gvt4                - GVT4 (X part of VSXC)
  412:    575 / mgga_x_gx                  - GX functional of Loos
  413:    698 / mgga_x_hlta                - Half-and-half meta-LDAized LDA exchange by Lehtola and Marques
  414:    256 / mgga_x_jk                  - Jemmer-Knowles meta-GGA exchange
  415:    735 / mgga_x_ktbm_0              - KTBM learned exchange - 0
  416:    736 / mgga_x_ktbm_1              - KTBM learned exchange - 1
  417:    745 / mgga_x_ktbm_10             - KTBM learned exchange - 10
  418:    746 / mgga_x_ktbm_11             - KTBM learned exchange - 11
  419:    747 / mgga_x_ktbm_12             - KTBM learned exchange - 12
  420:    748 / mgga_x_ktbm_13             - KTBM learned exchange - 13
  421:    749 / mgga_x_ktbm_14             - KTBM learned exchange - 14
  422:    750 / mgga_x_ktbm_15             - KTBM learned exchange - 15
  423:    751 / mgga_x_ktbm_16             - KTBM learned exchange - 16
  424:    752 / mgga_x_ktbm_17             - KTBM learned exchange - 17
  425:    753 / mgga_x_ktbm_18             - KTBM learned exchange - 18
  426:    754 / mgga_x_ktbm_19             - KTBM learned exchange - 19
  427:    737 / mgga_x_ktbm_2              - KTBM learned exchange - 2
  428:    755 / mgga_x_ktbm_20             - KTBM learned exchange - 20
  429:    756 / mgga_x_ktbm_21             - KTBM learned exchange - 21
  430:    757 / mgga_x_ktbm_22             - KTBM learned exchange - 22
  431:    758 / mgga_x_ktbm_23             - KTBM learned exchange - 23
  432:    759 / mgga_x_ktbm_24             - KTBM learned exchange - 24
  433:    738 / mgga_x_ktbm_3              - KTBM learned exchange - 3
  434:    739 / mgga_x_ktbm_4              - KTBM learned exchange - 4
  435:    740 / mgga_x_ktbm_5              - KTBM learned exchange - 5
  436:    741 / mgga_x_ktbm_6              - KTBM learned exchange - 6
  437:    742 / mgga_x_ktbm_7              - KTBM learned exchange - 7
  438:    743 / mgga_x_ktbm_8              - KTBM learned exchange - 8
  439:    744 / mgga_x_ktbm_9              - KTBM learned exchange - 9
  440:    760 / mgga_x_ktbm_gap            - KTBM learned exchange - GAP
  441:    342 / mgga_x_lak                 - Lebeda-Aschebrock-Kummel meta-GGA exchange
  442:    201 / mgga_x_lta                 - Local tau approximation
  443:    203 / mgga_x_m06_l               - Minnesota M06-L exchange functional
  444:    226 / mgga_x_m11_l               - Minnesota M11-L exchange functional
  445:    249 / mgga_x_mbeef               - mBEEF exchange
  446:    250 / mgga_x_mbeefvdw            - mBEEF-vdW exchange
  447:    716 / mgga_x_mbr                 - modified Becke-Roussel by Patra et al
  448:    696 / mgga_x_mbrxc_bg            - Modified Becke-Roussel for band gaps - cuspless hole
  449:    697 / mgga_x_mbrxh_bg            - Modified Becke-Roussel for band gaps - hydrogen hole
  450:    644 / mgga_x_mcml                - MCML exchange
  451:    711 / mgga_x_mggac               - MGGAC exchange of Patra et al
  452:    230 / mgga_x_mk00                - Exchange for accurate virtual orbital energies
  453:    243 / mgga_x_mk00b               - Exchange for accurate virtual orbital energies (v. B)
  454:    227 / mgga_x_mn12_l              - Minnesota MN12-L exchange functional
  455:    260 / mgga_x_mn15_l              - Minnesota MN15-L exchange functional
  456:    245 / mgga_x_modtpss             - Modified Tao, Perdew, Staroverov & Scuseria
  457:    221 / mgga_x_ms0                 - MS exchange of Sun, Xiao, and Ruzsinszky
  458:    222 / mgga_x_ms1                 - MS1 exchange of Sun, et al
  459:    223 / mgga_x_ms2                 - MS2 exchange of Sun, et al
  460:    228 / mgga_x_ms2_rev             - MS2 exchange of Sun, et al with revised value for c
  461:    300 / mgga_x_ms2b                - MS2beta exchange of Furness and Sun
  462:    301 / mgga_x_ms2bs               - MS2beta* exchange of Furness and Sun
  463:    765 / mgga_x_msb86bl             - MS-B86bl, a B86b-like meta-GGA exchange
  464:    761 / mgga_x_mspbel              - MS-PBEl, a PBE-like meta-GGA exchange
  465:    763 / mgga_x_msrpbel             - MS-RPBEl, a RPBE-like meta-GGA exchange
  466:    724 / mgga_x_mtask               - modified TASK exchange
  467:    257 / mgga_x_mvs                 - MVS exchange of Sun, Perdew, and Ruzsinszky
  468:    302 / mgga_x_mvsb                - MVSbeta exchange by Furness and Sun
  469:    303 / mgga_x_mvsbs               - MVSbeta* exchange by Furness and Sun
  470:    576 / mgga_x_pbe_gx              - PBE-GX functional of Loos
  471:    213 / mgga_x_pkzb                - Perdew, Kurth, Zupan, and Blaha
  472:    497 / mgga_x_r2scan              - Re-regularized SCAN exchange by Furness et al
  473:    645 / mgga_x_r2scan01            - Re-regularized SCAN exchange by Furness et al with larger value for eta
  474:    718 / mgga_x_r2scanl             - Deorbitalized re-regularized SCAN (r2SCAN-L) exchange
  475:    650 / mgga_x_r4scan              - r$^{4}$SCAN, a functional that satisfies the same exact constraints that SCAN does
  476:    626 / mgga_x_regtm               - Regularized Tao and Mo exchange
  477:    603 / mgga_x_regtpss             - Regularized TPSS
  478:    293 / mgga_x_revm06_l            - Minnesota revM06-L exchange functional
  479:    581 / mgga_x_revscan             - revised SCAN
  480:    701 / mgga_x_revscanl            - Deorbitalized revised SCAN (revSCAN-L) exchange
  481:    693 / mgga_x_revtm               - revised Tao and Mo 2016 exchange
  482:    212 / mgga_x_revtpss             - revised Tao, Perdew, Staroverov & Scuseria
  483:    688 / mgga_x_rlda                - Reparametrized local-density approximation
  484:    766 / mgga_x_rmsb86bl            - regularized MS-B86bl
  485:    762 / mgga_x_rmspbel             - regularized MS-PBEl
  486:    764 / mgga_x_rmsrpbel            - regularized MS-RPBEl
  487:    209 / mgga_x_rpp09               - Rasanen, Pittalis & Proetto 09
  488:    648 / mgga_x_rppscan             - r++SCAN: rSCAN with uniform density limit and coordinate scaling behavior
  489:    493 / mgga_x_rscan               - Regularized SCAN exchange by Bartok and Yates
  490:    299 / mgga_x_rtpss               - TPSS for surface adsorption
  491:    542 / mgga_x_sa_tpss             - TPSS with correct surface asymptotics
  492:    263 / mgga_x_scan                - SCAN exchange of Sun, Ruzsinszky, and Perdew
  493:    700 / mgga_x_scanl               - Deorbitalized SCAN (SCAN-L) exchange
  494:    707 / mgga_x_task                - TASK exchange of Aschebrock and Kuemmel
  495:    205 / mgga_x_tau_hcth            - tau-HCTH from Boese and Handy
  496:    208 / mgga_x_tb09                - Tran & Blaha 09
  497:    225 / mgga_x_th                  - Tsuneda and Hirao
  498:    685 / mgga_x_tlda                - LDA-type exchange with tau-dependent potential
  499:    540 / mgga_x_tm                  - Tao and Mo 2016 exchange
  500:    202 / mgga_x_tpss                - Tao, Perdew, Staroverov & Scuseria
  501:    651 / mgga_x_vcml                - Exchange part of VCML-rVV10 by Trepte and Voss
  502:    541 / mgga_x_vt84                - meta-GGA version of VT{8,4} GGA
  503:    254 / mgga_xc_b97m_v             - B97M-V exchange-correlation functional
  504:    229 / mgga_xc_cc06               - Cancio and Chou 2006
  505:    288 / mgga_xc_hle17              - high local exchange 2017
  506:    564 / mgga_xc_lp90               - Lee & Parr, Eq. (56)
  507:     64 / mgga_xc_otpss_d            - oTPSS-D functional of Goerigk and Grimme
  508:    242 / mgga_xc_tpsslyp1w          - TPSSLYP1W
  509:    652 / mgga_xc_vcml_rvv10         - VCML-rVV10 by Trepte and Voss
  510:     42 / mgga_xc_zlp                - Zhao, Levy & Parr, Eq. (21)
  511:    646 / hyb_gga_x_cam_s12g         - Swart 2012 range-separated hybrid GGA exchange
  512:    647 / hyb_gga_x_cam_s12h         - Swart 2012 range-separated hybrid GGA exchange
  513:     81 / hyb_gga_x_n12_sx           - Minnesota N12-SX exchange functional
  514:    656 / hyb_gga_x_pbe_erf_gws      - Short-range PBE (GWS) exchange (erfc) + long-range exact exchange
  515:    496 / hyb_gga_x_s12h             - Swart 2012 hybrid GGA exchange
  516:    426 / hyb_gga_x_sogga11_x        - Hybrid based on SOGGA11 form
  517:    607 / hyb_gga_xc_apbe0           - Hybrid based on APBE
  518:    409 / hyb_gga_xc_apf             - APF hybrid functional
  519:    416 / hyb_gga_xc_b1lyp           - B1LYP
  520:    417 / hyb_gga_xc_b1pw91          - B1PW91
  521:    412 / hyb_gga_xc_b1wc            - B1WC
  522:    402 / hyb_gga_xc_b3lyp           - B3LYP
  523:    394 / hyb_gga_xc_b3lyp3          - B3LYP with VWN functional 3 instead of RPA
  524:    475 / hyb_gga_xc_b3lyp5          - B3LYP with VWN functional 5 instead of RPA
  525:    461 / hyb_gga_xc_b3lyp_mcm1      - B3LYP-MCM1
  526:    462 / hyb_gga_xc_b3lyp_mcm2      - B3LYP-MCM2
  527:    459 / hyb_gga_xc_b3lyps          - B3LYP*
  528:    403 / hyb_gga_xc_b3p86           - B3P86
  529:    315 / hyb_gga_xc_b3p86_nwchem    - B3P86, NWChem version
  530:    401 / hyb_gga_xc_b3pw91          - The original (ACM, B3PW91) hybrid of Becke
  531:    572 / hyb_gga_xc_b5050lyp        - B5050LYP
  532:    407 / hyb_gga_xc_b97             - Becke 97
  533:    408 / hyb_gga_xc_b97_1           - Becke 97-1
  534:    266 / hyb_gga_xc_b97_1p          - version of B97 by Cohen and Handy
  535:    410 / hyb_gga_xc_b97_2           - Becke 97-2
  536:    414 / hyb_gga_xc_b97_3           - Becke 97-3
  537:    413 / hyb_gga_xc_b97_k           - Boese-Martin for Kinetics
  538:    435 / hyb_gga_xc_bhandh          - BHandH i.e. BHLYP
  539:    436 / hyb_gga_xc_bhandhlyp       - BHandHLYP
  540:    499 / hyb_gga_xc_blyp35          - BLYP35
  541:    433 / hyb_gga_xc_cam_b3lyp       - CAM version of B3LYP
  542:    395 / hyb_gga_xc_cam_o3lyp       - CAM-O3LYP
  543:    681 / hyb_gga_xc_cam_pbeh        - CAM hybrid screened exchange PBE version
  544:    490 / hyb_gga_xc_cam_qtp_00      - CAM-B3LYP retuned using ionization potentials of water
  545:    482 / hyb_gga_xc_cam_qtp_01      - CAM-B3LYP retuned using ionization potentials of water
  546:    491 / hyb_gga_xc_cam_qtp_02      - CAM-B3LYP retuned using ionization potentials of water
  547:    614 / hyb_gga_xc_camh_b3lyp      - CAM version of B3LYP, tuned for TDDFT
  548:    470 / hyb_gga_xc_camy_b3lyp      - CAMY version of B3LYP
  549:    455 / hyb_gga_xc_camy_blyp       - CAMY version of BLYP
  550:    682 / hyb_gga_xc_camy_pbeh       - CAMY hybrid screened exchange PBE version
  551:    477 / hyb_gga_xc_cap0            - Correct Asymptotic Potential hybrid
  552:    390 / hyb_gga_xc_case21          - CASE21: Constrained And Smoothed semi-Empirical 2021 functional
  553:    476 / hyb_gga_xc_edf2            - EDF2
  554:    608 / hyb_gga_xc_hapbe           - Hybrid based in APBE and zvPBEloc
  555:    314 / hyb_gga_xc_hflyp           - HF + LYP correlation
  556:    431 / hyb_gga_xc_hjs_b88         - HJS hybrid screened exchange B88 version
  557:    432 / hyb_gga_xc_hjs_b97x        - HJS hybrid screened exchange B97x version
  558:    429 / hyb_gga_xc_hjs_pbe         - HJS hybrid screened exchange PBE version
  559:    430 / hyb_gga_xc_hjs_pbe_sol     - HJS hybrid screened exchange PBE_SOL version
  560:    472 / hyb_gga_xc_hpbeint         - hPBEint
  561:    427 / hyb_gga_xc_hse03           - HSE03
  562:    428 / hyb_gga_xc_hse06           - HSE06
  563:    479 / hyb_gga_xc_hse12           - HSE12
  564:    480 / hyb_gga_xc_hse12s          - HSE12 (short-range version)
  565:    481 / hyb_gga_xc_hse_sol         - HSEsol
  566:    485 / hyb_gga_xc_kmlyp           - Kang-Musgrave hybrid
  567:    589 / hyb_gga_xc_lb07            - Livshits and Baer, empirical functional also used for IP tuning
  568:    400 / hyb_gga_xc_lc_blyp         - LC version of BLYP
  569:    625 / hyb_gga_xc_lc_blyp_ea      - LC version of BLYP for electron affinities
  570:    639 / hyb_gga_xc_lc_blypr        - LC version of BLYP with correlation only in the short range
  571:    636 / hyb_gga_xc_lc_bop          - LC version of B88
  572:    637 / hyb_gga_xc_lc_pbeop        - LC version of PBE
  573:    492 / hyb_gga_xc_lc_qtp          - CAM-B3LYP retuned using ionization potentials of water
  574:    469 / hyb_gga_xc_lc_vv10         - Vydrov and Van Voorhis
  575:    478 / hyb_gga_xc_lc_wpbe         - Long-range corrected PBE (LC-wPBE) by Vydrov and Scuseria
  576:    488 / hyb_gga_xc_lc_wpbe08_whs   - Long-range corrected PBE (LC-wPBE) by Weintraub, Henderson and Scuseria
  577:    486 / hyb_gga_xc_lc_wpbe_whs     - Long-range corrected PBE (LC-wPBE) by Weintraub, Henderson and Scuseria
  578:    487 / hyb_gga_xc_lc_wpbeh_whs    - Long-range corrected short-range hybrid PBE (LC-wPBE) by Weintraub, Henderson and Scuseria
  579:    489 / hyb_gga_xc_lc_wpbesol_whs  - Long-range corrected PBE (LC-wPBE) by Weintraub, Henderson and Scuseria
  580:    468 / hyb_gga_xc_lcy_blyp        - LCY version of BLYP
  581:    467 / hyb_gga_xc_lcy_pbe         - LCY version of PBE
  582:    473 / hyb_gga_xc_lrc_wpbe        - Long-range corrected PBE (LRC-wPBE) by Rohrdanz, Martins and Herbert
  583:    465 / hyb_gga_xc_lrc_wpbeh       - Long-range corrected short-range hybrid PBE (LRC-wPBEh) by Rohrdanz, Martins and Herbert
  584:    437 / hyb_gga_xc_mb3lyp_rc04     - B3LYP with RC04 LDA
  585:    640 / hyb_gga_xc_mcam_b3lyp      - Modified CAM-B3LYP by Day, Nguyen and Pachter
  586:    405 / hyb_gga_xc_mpw1k           - mPW1K
  587:    483 / hyb_gga_xc_mpw1lyp         - mPW1LYP
  588:    484 / hyb_gga_xc_mpw1pbe         - mPW1PBE
  589:    418 / hyb_gga_xc_mpw1pw          - mPW1PW
  590:    419 / hyb_gga_xc_mpw3lyp         - MPW3LYP
  591:    415 / hyb_gga_xc_mpw3pw          - MPW3PW of Adamo & Barone
  592:    453 / hyb_gga_xc_mpwlyp1m        - MPW with 1 par. for metals/LYP
  593:    404 / hyb_gga_xc_o3lyp           - O3LYP
  594:    386 / hyb_gga_xc_opb3lyp         - opB3LYP: B3LYP reoptimized in 6-311++G(2d,2p) basis set
  595:    456 / hyb_gga_xc_pbe0_13         - PBE0-1/3
  596:    393 / hyb_gga_xc_pbe38           - PBE38: PBE0 with 3/8 = 37.5% exact exchange
  597:    290 / hyb_gga_xc_pbe50           - PBE50
  598:    392 / hyb_gga_xc_pbe_2x          - PBE-2X: PBE0 with 56% exact exchange
  599:    273 / hyb_gga_xc_pbe_mol0        - PBEmol0
  600:    276 / hyb_gga_xc_pbe_molb0       - PBEmolbeta0
  601:    274 / hyb_gga_xc_pbe_sol0        - PBEsol0
  602:    275 / hyb_gga_xc_pbeb0           - PBEbeta0
  603:    406 / hyb_gga_xc_pbeh            - PBEH (PBE0)
  604:    460 / hyb_gga_xc_qtp17           - Global hybrid for vertical ionization potentials
  605:    610 / hyb_gga_xc_rcam_b3lyp      - Similar to CAM-B3LYP, but trying to reduce the many-electron self-interaction
  606:    325 / hyb_gga_xc_relpbe0         - relPBE0 a.k.a. relPBE: PBE0 refitted for actinide compounds
  607:    454 / hyb_gga_xc_revb3lyp        - Revised B3LYP
  608:    420 / hyb_gga_xc_sb98_1a         - SB98 (1a)
  609:    421 / hyb_gga_xc_sb98_1b         - SB98 (1b)
  610:    422 / hyb_gga_xc_sb98_1c         - SB98 (1c)
  611:    423 / hyb_gga_xc_sb98_2a         - SB98 (2a)
  612:    424 / hyb_gga_xc_sb98_2b         - SB98 (2b)
  613:    425 / hyb_gga_xc_sb98_2c         - SB98 (2c)
  614:    434 / hyb_gga_xc_tuned_cam_b3lyp - CAM version of B3LYP, tuned for excitations and properties
  615:    463 / hyb_gga_xc_wb97            - wB97 range-separated functional
  616:    464 / hyb_gga_xc_wb97x           - wB97X range-separated functional
  617:    471 / hyb_gga_xc_wb97x_d         - wB97X-D range-separated functional
  618:    399 / hyb_gga_xc_wb97x_d3        - wB97X-D3 range-separated functional
  619:    466 / hyb_gga_xc_wb97x_v         - wB97X-V range-separated functional
  620:    611 / hyb_gga_xc_wc04            - hybrid fitted to carbon NMR shifts
  621:    615 / hyb_gga_xc_whpbe0          - Long-range corrected short-range hybrid PBE (whPBE0) by Shao et al
  622:    612 / hyb_gga_xc_wp04            - hybrid fitted to proton NMR shifts
  623:    411 / hyb_gga_xc_x3lyp           - X3LYP
  624:    279 / hyb_mgga_x_bmk             - Boese-Martin for kinetics
  625:    340 / hyb_mgga_x_cf22d           - Minnesota CF22D hybrid exchange functional
  626:     36 / hyb_mgga_x_dldf            - Dispersionless Density Functional
  627:    705 / hyb_mgga_x_js18            - Jana and Samal 2018, screened range-separated TM exchange
  628:    438 / hyb_mgga_x_m05             - Minnesota M05 hybrid exchange functional
  629:    439 / hyb_mgga_x_m05_2x          - Minnesota M05-2X hybrid exchange functional
  630:    449 / hyb_mgga_x_m06             - Minnesota M06 hybrid exchange functional
  631:    450 / hyb_mgga_x_m06_2x          - Minnesota M06-2X hybrid exchange functional
  632:    444 / hyb_mgga_x_m06_hf          - Minnesota M06-HF hybrid exchange functional
  633:    310 / hyb_mgga_x_m06_sx          - Minnesota M06-SX short-range hybrid exchange functional
  634:    295 / hyb_mgga_x_m08_hx          - Minnesota M08-HX hybrid exchange functional
  635:    296 / hyb_mgga_x_m08_so          - Minnesota M08-SO hybrid exchange functional
  636:    297 / hyb_mgga_x_m11             - Minnesota M11 hybrid exchange functional
  637:    248 / hyb_mgga_x_mn12_sx         - Minnesota MN12-SX hybrid exchange functional
  638:    268 / hyb_mgga_x_mn15            - Minnesota MN15 hybrid exchange functional
  639:    224 / hyb_mgga_x_ms2h            - MS2 hybrid exchange of Sun, et al
  640:    474 / hyb_mgga_x_mvsh            - MVSh hybrid exchange functional
  641:    706 / hyb_mgga_x_pjs18           - Patra, Jana and Samal 2018, screened range-separated TM exchange
  642:    305 / hyb_mgga_x_revm06          - Revised Minnesota M06 hybrid exchange functional
  643:    304 / hyb_mgga_x_revm11          - Revised Minnesota M11 hybrid exchange functional
  644:    583 / hyb_mgga_x_revscan0        - revised SCAN hybrid exchange (SCAN0)
  645:    264 / hyb_mgga_x_scan0           - SCAN hybrid exchange (SCAN0)
  646:    282 / hyb_mgga_x_tau_hcth        - Hybrid version of tau-HCTH
  647:    563 / hyb_mgga_xc_b0kcis         - Hybrid based on KCIS
  648:    441 / hyb_mgga_xc_b86b95         - Mixture of B86 with BC95
  649:    440 / hyb_mgga_xc_b88b95         - Mixture of B88 with BC95 (B1B95)
  650:    398 / hyb_mgga_xc_b94_hyb        - Becke 1994 hybrid meta-GGA
  651:    598 / hyb_mgga_xc_b98            - Becke 98
  652:    443 / hyb_mgga_xc_bb1k           - Mixture of B88 with BC95 from Zhao and Truhlar
  653:    389 / hyb_mgga_xc_br3p86         - BR3P86 hybrid meta-GGA from Neumann and Handy
  654:    695 / hyb_mgga_xc_edmggah        - EDMGGA hybrid
  655:    658 / hyb_mgga_xc_gas22          - Google Accelerated Science 22
  656:    720 / hyb_mgga_xc_lc_tmlyp       - Long-range corrected TM-LYP by Jana et al
  657:    445 / hyb_mgga_xc_mpw1b95        - Mixture of mPW91 with BC95 from Zhao and Truhlar
  658:    566 / hyb_mgga_xc_mpw1kcis       - MPW1KCIS for barrier heights
  659:    446 / hyb_mgga_xc_mpwb1k         - Mixture of mPW91 with BC95 for kinetics
  660:    567 / hyb_mgga_xc_mpwkcis1k      - MPWKCIS1K for barrier heights
  661:    568 / hyb_mgga_xc_pbe1kcis       - PBE1KCIS for binding energies
  662:    451 / hyb_mgga_xc_pw6b95         - Mixture of PW91 with BC95 from Zhao and Truhlar
  663:    442 / hyb_mgga_xc_pw86b95        - Mixture of PW86 with BC95
  664:    452 / hyb_mgga_xc_pwb6k          - Mixture of PW91 with BC95 from Zhao and Truhlar for kinetics
  665:    660 / hyb_mgga_xc_r2scan0        - r2SCAN0: r2SCAN hybrid like PBE0 with 25% exact exchange
  666:    661 / hyb_mgga_xc_r2scan50       - r2SCAN50: r2SCAN hybrid like PBE50 with 50% exact exchange
  667:    659 / hyb_mgga_xc_r2scanh        - r2SCANh: r2SCAN hybrid like TPSSh with 10% exact exchange
  668:    458 / hyb_mgga_xc_revtpssh       - revTPSSh
  669:    396 / hyb_mgga_xc_tpss0          - TPSS0 with 25% exact exchange
  670:    569 / hyb_mgga_xc_tpss1kcis      - TPSS1KCIS for thermochemistry and kinetics
  671:    457 / hyb_mgga_xc_tpssh          - TPSSh
  672:    531 / hyb_mgga_xc_wb97m_v        - wB97M-V exchange-correlation functional
  673:    447 / hyb_mgga_xc_x1b95          - Mixture of X with BC95
  674:    448 / hyb_mgga_xc_xb1k           - Mixture of X with BC95 for kinetics
  675:    653 / hyb_lda_x_erf              - Long-range corrected functional based on short-range LDA exchange (erfc)
  676:    588 / hyb_lda_xc_bn05            - Baer and Neuhauser, gamma=1
  677:    178 / hyb_lda_xc_cam_lda0        - CAM version of LDA0
  678:    177 / hyb_lda_xc_lda0            - LDA hybrid exchange (LDA0)
